ITEM: TIMESTEP
0
ITEM: NUMBER OF ATOMS
46605
ITEM: BOX BOUNDS pp pp ff
0.0000000000000000e+00 7.5204971283511398e+01
0.0000000000000000e+00 7.6781222183235400e+01
0.0000000000000000e+00 1.2000000000000000e+02
ITEM: ATOMS id type c_pot c_ket
4 1 -8.70362 0.0273783
6 1 -8.38115 0.00543895
7 1 -9.01545 0.028511
8 1 -9.15492 0.0420827
9 2 -36.1475 0.0321065
11 2 -33.3853 0.0271363
12 2 -34.0529 0.00209755
13 3 -8.44539 0.00751975
14 3 -9.12867 0.03424
15 3 -5.84326 0.0148833
16 3 -10.2067 0.0170748
17 3 -8.00421 0.00716157
18 3 -9.68105 0.0475277
19 3 -8.62825 0.015599
20 3 -8.43167 0.0149029
21 3 -7.42759 0.0102897
22 3 -9.85103 0.0450124
23 3 -9.04204 0.0324013
25 3 -8.75745 0.00946112
27 3 -9.63155 0.033643
28 3 -11.262 0.0441682
450 1 -9.61296 0.0112369
454 1 -12.3986 0.0489652
455 1 -9.53808 0.0182703
459 2 -37.4642 0.0218753
464 3 -7.75216 0.0175
467 3 -8.76339 0.0299834
470 3 -3.67296 0.00274817
471 3 -8.18785 0.0117816
475 3 -7.22065 0.0202192
32 1 -9.63557 0.00322841
33 1 -11.588 0.0624495
34 1 -10.7556 0.031084
35 1 -9.76407 0.0185597
36 1 -9.47822 0.0261301
37 2 -37.4417 0.122564
39 2 -35.866 0.0145929
40 2 -37.8442 0.014453
41 3 -9.22729 0.0670397
42 3 -7.89411 0.0377547
43 3 -5.07513 0.0149228
44 3 -8.71008 0.0424991
45 3 -7.29646 0.00784718
46 3 -7.63011 0.0815436
47 3 -9.12787 0.0223153
48 3 -8.20528 0.00889605
49 3 -7.24209 0.0343429
50 3 -5.39855 0.0286524
51 3 -8.54719 0.00409244
53 3 -8.5632 0.0583195
55 3 -7.98155 0.022413
56 3 -5.27131 0.0115483
478 1 -10.1303 0.0165816
482 1 -13.7672 0.0130478
483 1 -9.68477 0.0253948
487 2 -40.4125 0.0451042
492 3 -5.91294 0.00177834
495 3 -8.77235 0.116308
498 3 0.496765 0.00947367
499 3 -7.35807 0.00341063
503 3 -7.05866 0.014533
2 1 -7.9455 0.0706521
427 1 -9.31502 0.00851075
5 1 -8.48544 0.0284504
449 1 -5.84411 0.0290003
99 3 -10.2528 0.025618
517 3 -8.83695 0.0152794
533 1 -6.28543 0.0249922
559 3 -10.0166 0.0884803
555 3 -9.08888 0.118124
561 1 -5.10325 0.0184587
113 1 -7.15047 0.00121187
60 1 -9.97111 0.0151758
59 1 -8.72656 0.00906991
67 2 -38.9137 0.0332709
63 1 -9.67762 0.00486426
61 1 -11.4605 0.0345673
69 3 -8.36382 0.0145287
77 3 -7.56657 0.0243752
73 3 -6.47436 0.0161034
62 1 -12.361 0.0896945
64 1 -9.49096 0.0211274
65 2 -36.4551 0.0120389
70 3 -8.27481 0.0212837
68 2 -35.3532 0.023624
72 3 -6.43726 0.0158388
510 1 -11.2148 0.0341965
76 3 -8.50451 0.0976893
526 3 -2.24223 0.00675851
78 3 -3.34739 0.00201763
506 1 -9.47544 0.0599767
84 3 -7.63793 0.011715
511 1 -9.07736 0.0443101
74 3 -6.83392 0.0419224
81 3 -8.24624 0.0609937
79 3 -7.40674 0.0592328
515 2 -39.2308 0.0467728
88 1 -9.37227 0.0282512
91 1 -9.06252 0.0736923
523 3 -8.69126 0.0480995
96 2 -32.2043 0.0686778
531 3 -8.7523 0.0122743
97 3 -8.6552 0.0113889
83 3 -7.53822 0.0126472
520 3 -6.69605 0.0509477
98 3 -8.67806 0.018584
95 2 -38.3531 0.0413286
89 1 -10.4408 0.0032932
92 1 -9.11863 0.0650253
93 2 -35.1468 0.0554802
102 3 -6.92286 0.00186582
106 3 -2.13396 0.0155963
111 3 -8.76433 0.129293
71 3 -8.37559 0.00248612
548 3 -8.62638 0.0135352
534 1 -8.3847 0.0338401
109 3 -8.9125 0.0611181
100 3 -6.79178 0.018219
104 3 -9.08895 0.0274177
101 3 -7.71103 0.0539992
75 3 -8.95914 0.0201629
538 1 -8.59586 0.0290695
527 3 -7.96635 0.0446201
103 3 -8.71677 0.0978036
539 1 -8.68482 0.0159759
112 3 -8.79402 0.0737848
90 1 -11.4535 0.00856122
551 3 -8.82951 0.0512769
543 2 -35.4618 0.0444575
554 3 -8.98101 0.00257436
105 3 -8.65477 0.0175213
107 3 -8.11971 0.0251174
116 1 -7.91938 0.00941185
117 1 -8.7586 0.0513046
118 1 -7.74486 0.0485102
119 1 -8.85477 0.0256563
120 1 -8.84366 0.0284352
121 2 -33.2958 0.00885088
123 2 -35.2484 0.0522202
124 2 -24.6457 0.0153336
125 3 -9.2862 0.0314857
126 3 -9.4527 0.0445031
127 3 -13.3557 0.0159949
128 3 -9.47896 0.0939893
129 3 -12.9508 0.0418219
130 3 -8.79373 0.0721204
131 3 -9.15351 0.155244
132 3 -9.58733 0.0461709
133 3 -10.3016 0.2619
134 3 -7.11118 0.0736981
135 3 -9.02455 0.093511
137 3 -9.77351 0.0157327
139 3 -11.0515 0.0858296
140 3 -10.9357 0.0683631
562 1 -7.39376 0.0139528
566 1 -6.88436 0.0304152
567 1 -8.61853 0.0149725
571 2 -33.2684 0.0531098
576 3 -10.3615 0.0188301
579 3 -9.05652 0.011163
582 3 -8.76056 0.0241451
583 3 -9.56107 0.0407
587 3 -11.3683 0.0424967
144 1 -7.16781 0.00623152
145 1 -5.55282 0.00595461
146 1 -6.39845 0.00755938
147 1 -8.99759 0.0149895
148 1 -8.70739 0.0279036
149 2 -33.002 0.0411253
151 2 -31.2453 0.0089358
152 2 -19.5419 0.0769536
153 3 -9.25916 0.103431
154 3 -9.69103 0.0839012
155 3 -14.3838 0.0307217
156 3 -11.1409 0.0136561
157 3 -13.7454 0.0291608
158 3 -11.4607 0.0529358
159 3 -8.80884 0.0291773
160 3 -9.8226 0.0494418
161 3 -10.6485 0.00464423
162 3 -11.8211 0.0220533
163 3 -9.81085 0.0268951
165 3 -10.6235 0.0202432
167 3 -10.9141 0.0298186
168 3 -16.0491 0.0536822
590 1 -6.99774 0.0479978
594 1 -5.89776 0.0185581
595 1 -8.58004 0.0188612
599 2 -30.6939 0.0390062
604 3 -11.624 0.0915457
607 3 -8.84758 0.0282681
610 3 -12.5018 0.0830246
611 3 -10.3014 0.0548599
615 3 -11.115 0.0215647
141 1 -2.12849 0.0140911
143 1 -1.22664 0.0688105
589 1 -1.08358 0.0932583
171 1 -1.90294 0.0416463
191 3 -9.78731 0.13728
651 1 -9.6801 0.0199706
650 1 -7.24005 0.027092
221 3 -9.69241 0.0184839
667 3 -9.8912 0.0260742
660 3 -10.6485 0.0126742
617 1 -0.0684054 0.0163884
673 1 -4.06165 0.0874828
199 1 -2.72916 0.00528957
645 1 -0.921941 0.0356235
173 1 -5.717 0.0112332
174 1 -7.7076 0.0557715
210 3 -8.79443 0.0240219
170 1 -7.59038 0.0389241
179 2 -32.1232 0.0177549
175 1 -9.12247 0.0272194
189 3 -10.1884 0.0105406
182 3 -8.94428 0.021118
184 3 -10.2294 0.0206478
185 3 -12.8626 0.00693224
181 3 -8.74534 0.0208468
176 1 -8.81596 0.0141818
172 1 -7.5314 0.012436
190 3 -9.07998 0.0129041
187 3 -8.93885 0.0102954
618 1 -6.95632 0.00758047
622 1 -5.56031 0.0230154
188 3 -9.59224 0.00287614
183 3 -14.382 0.0903068
195 3 -10.2902 0.0245838
186 3 -10.763 0.0326411
623 1 -8.58763 0.0162213
196 3 -15.7966 0.0511776
204 1 -9.24772 0.0234137
202 1 -8.65885 0.00279826
193 3 -10.3745 0.0176068
177 2 -34.3233 0.0154359
635 3 -9.20227 0.0255064
643 3 -11.5482 0.00782707
201 1 -6.40915 0.00960925
632 3 -11.6815 0.0164653
638 3 -12.6212 0.0184361
203 1 -9.3452 0.0188989
207 2 -33.7173 0.00965231
214 3 -10.0846 0.0120852
215 3 -8.91448 0.0210787
180 2 -20.7537 0.0121481
217 3 -9.09499 0.0517256
198 1 -8.34742 0.018315
212 3 -9.38675 0.0175692
211 3 -12.4858 0.00496922
208 2 -23.1384 0.0250566
209 3 -8.94819 0.0385995
200 1 -8.11824 0.0540711
218 3 -7.88199 0.0226116
213 3 -11.5177 0.056021
639 3 -10.3106 0.0283059
663 3 -8.65272 0.00383787
205 2 -35.4463 0.024039
224 3 -14.863 0.0760972
223 3 -9.54584 0.0143921
216 3 -8.75907 0.00710482
219 3 -9.2369 0.053803
627 2 -30.7793 0.05588
646 1 -7.91835 0.0139474
655 2 -31.5341 0.0111763
666 3 -11.4654 0.0281016
671 3 -10.1235 0.0028665
228 1 -9.09892 0.00712866
229 1 -8.01783 0.0576106
230 1 -10.8956 0.129628
231 1 -9.58708 0.0268353
232 1 -9.48143 0.0301864
233 2 -35.7187 0.0126921
235 2 -35.8903 0.00636626
236 2 -30.1478 0.011256
237 3 -8.55072 0.0780494
238 3 -8.41226 0.0175857
239 3 -9.98529 0.0098877
240 3 -7.57823 0.0342672
241 3 -7.9274 0.0376646
242 3 -8.58504 0.104009
243 3 -8.87763 0.00641447
244 3 -8.791 0.0189024
245 3 -8.45157 0.0985206
246 3 -5.55912 0.00348086
247 3 -8.4662 0.0195818
249 3 -9.11396 0.00602987
251 3 -8.23611 0.0650133
252 3 -11.9673 0.0620742
674 1 -8.77878 0.152539
678 1 -9.15162 0.014498
679 1 -9.1132 0.0284211
683 2 -34.1559 0.0150767
688 3 -9.62599 0.0140322
691 3 -8.45295 0.0491806
694 3 -7.08946 0.0182693
695 3 -8.45944 0.049118
699 3 -9.22813 0.00439892
256 1 -8.80742 0.119754
257 1 -9.69918 0.00477187
258 1 -10.4909 0.0147082
259 1 -9.10039 0.0143483
260 1 -9.09745 0.126685
261 2 -34.6158 0.00425259
263 2 -37.659 0.00504494
264 2 -29.4749 0.0702516
265 3 -8.55903 0.0266849
266 3 -8.81877 0.0268203
267 3 -10.5574 0.0727604
268 3 -7.28183 0.14606
269 3 -10.0001 0.0331682
270 3 -7.82304 0.0698308
271 3 -8.92391 0.113437
272 3 -9.26086 0.00444389
273 3 -9.23201 0.0355582
274 3 -3.05582 0.0702971
275 3 -8.09764 0.0461466
277 3 -9.29545 0.131094
279 3 -9.02367 0.0806491
280 3 -9.4545 0.0413067
702 1 -8.68328 0.0231892
706 1 -9.78182 0.144726
707 1 -8.88437 0.0257698
711 2 -36.0892 0.0520861
716 3 -8.67183 0.0757894
719 3 -9.30789 0.00960557
722 3 -6.16246 0.00306294
723 3 -8.32156 0.0307864
727 3 -8.93632 0.0755148
729 1 -4.80042 0.0276102
227 1 -4.89115 0.0524944
701 1 -6.5152 0.0153935
287 1 -8.81796 0.0669341
286 1 -7.82645 0.046373
289 2 -34.8223 0.00912548
293 3 -8.63998 0.0264503
284 1 -8.17073 0.0390363
285 1 -8.11341 0.157774
292 2 -24.0273 0.0533252
297 3 -12.3461 0.0069166
288 1 -9.12044 0.0530201
300 3 -9.00845 0.0458338
298 3 -9.61414 0.0367066
739 2 -35.3122 0.017115
299 3 -8.99999 0.0116159
295 3 -11.5531 0.0394751
307 3 -10.3037 0.0469744
294 3 -9.03562 0.0293334
296 3 -9.36214 0.0168985
302 3 -7.93729 0.0134341
313 1 -8.05925 0.0287368
305 3 -9.37538 0.0669183
301 3 -9.0804 0.014014
291 2 -34.5247 0.0522254
747 3 -8.81258 0.00609257
319 2 -33.9936 0.0290606
734 1 -8.85856 0.212745
751 3 -8.80126 0.00617963
750 3 -7.17813 0.0683719
311 1 -3.30784 0.0122231
312 1 -8.84387 0.00218824
755 3 -9.41617 0.0352201
322 3 -8.66343 0.0294801
317 2 -36.2608 0.0031401
308 3 -13.0928 0.0565606
735 1 -9.26305 0.0155895
316 1 -8.76061 0.0979019
744 3 -9.30276 0.054465
330 3 -9.15011 0.0362738
324 3 -9.21258 0.00767658
328 3 -9.0154 0.115284
315 1 -9.49571 0.0080928
320 2 -34.2264 0.0166224
321 3 -9.06855 0.0262522
333 3 -9.61164 0.0594645
331 3 -9.25538 0.06061
758 1 -8.95005 0.0441203
314 1 -9.69758 0.0151229
303 3 -9.26667 0.0348687
329 3 -7.63685 0.00761035
326 3 -9.30362 0.0147295
762 1 -10.5534 0.0382208
730 1 -8.59523 0.162616
336 3 -11.5659 0.020804
763 1 -9.33115 0.0363708
778 3 -7.77362 0.0550631
767 2 -35.3019 0.0165833
779 3 -8.5346 0.0874397
775 3 -9.15062 0.00667112
335 3 -8.63634 0.0215436
325 3 -6.68567 0.015115
772 3 -8.78798 0.152992
323 3 -7.04432 0.0320227
327 3 -9.12709 0.00759229
757 1 -4.0863 0.042081
783 3 -8.25809 0.0404775
309 1 -3.23557 0.0259823
283 1 -4.6617 0.0960008
341 1 -11.7753 0.146921
338 1 -9.77051 0.0717388
340 1 -10.0904 0.00296382
342 1 -12.5379 0.0367082
343 1 -9.65847 0.0362953
344 1 -9.49882 0.0284273
345 2 -38.1119 0.043833
347 2 -38.0111 0.0829647
348 2 -41.4284 0.0188757
349 3 -9.00778 0.00371142
350 3 -8.04929 0.0150909
351 3 -3.45339 0.0356662
352 3 -6.86848 0.0269906
353 3 -4.79965 0.00761406
354 3 -6.51364 0.0373715
355 3 -8.38704 0.00841641
356 3 -7.56815 0.0419385
357 3 -6.39639 0.0128653
358 3 -1.93057 0.0367642
359 3 -7.97909 0.0358244
361 3 -8.31977 0.0234211
363 3 -7.41526 0.0137829
364 3 -4.51749 0.040516
786 1 -10.6894 0.0380377
790 1 -13.8597 0.0313334
791 1 -10.0945 0.0113804
795 2 -38.8056 0.0505907
800 3 -6.27767 0.0151637
803 3 -8.73257 0.00497856
806 3 -0.343902 0.014769
807 3 -7.43989 0.037088
811 3 -6.32812 0.00471894
366 1 -9.70827 0.0207211
368 1 -9.4559 0.014656
369 1 -12.9744 0.0293152
370 1 -11.4791 0.00418072
371 1 -9.34118 0.0138009
372 1 -9.43518 0.0788479
373 2 -34.815 0.0116236
375 2 -39.1596 0.0250237
376 2 -32.6455 0.125612
377 3 -8.84002 0.0281311
378 3 -8.91968 0.0290728
379 3 -9.4916 0.00193005
380 3 -7.04394 0.0212945
381 3 -8.65083 0.00310801
382 3 -6.07462 0.0737422
383 3 -8.83589 0.0367558
384 3 -8.80033 0.0620058
385 3 -8.63727 0.00671794
386 3 -3.63635 0.0410829
387 3 -7.64641 0.0514511
389 3 -8.28371 0.00660733
391 3 -8.77712 0.0231278
392 3 -5.21868 0.0570387
814 1 -9.57056 0.0112837
818 1 -11.8732 0.0276656
819 1 -9.24021 0.0103894
823 2 -40.8071 0.0775909
828 3 -5.97681 0.00857876
831 3 -8.62558 0.0485314
834 3 -1.04733 0.0329803
835 3 -7.43775 0.00967895
839 3 -8.18913 0.0307215
365 1 -9.09184 0.00591766
396 1 -8.48029 0.0220809
394 1 -9.26779 0.0387584
397 1 -8.6617 0.057641
406 3 -9.30044 0.0558764
400 1 -8.58623 0.028648
3 1 -3.51753 0.00353744
401 2 -33.8122 0.00936013
408 3 -7.43716 0.0544626
409 3 -8.96337 0.0282049
399 1 -8.85462 0.156178
411 3 -8.96258 0.0546418
412 3 -9.79754 0.000291942
407 3 -11.6606 0.0307231
413 3 -9.44727 0.0358773
415 3 -8.65496 0.0712302
403 2 -36.1083 0.0480763
420 3 -12.334 0.00118316
398 1 -10.5163 0.00861266
846 1 -7.78171 0.0215745
419 3 -8.9989 0.00924982
405 3 -9.27318 0.0675356
417 3 -9.90333 0.0356253
847 1 -8.59499 0.013125
859 3 -9.58485 0.0517415
410 3 -8.49782 0.0242892
842 1 -7.85022 0.0327623
856 3 -9.08573 0.0164492
851 2 -35.9127 0.00626462
414 3 -5.30586 0.0590233
867 3 -10.2661 0.050311
426 1 -8.38453 0.0641558
429 2 -35.6112 0.0315412
424 1 -8.03477 0.0351323
422 1 -8.2411 0.0249833
863 3 -9.11033 0.0564602
428 1 -8.84571 0.00984198
435 3 -10.3925 0.0213183
436 3 -8.77667 0.0457311
425 1 -8.40209 0.054363
431 2 -35.3474 0.00741502
438 3 -9.19623 0.0218594
404 2 -28.1081 0.024183
434 3 -8.87609 0.0472896
447 3 -10.1239 0.030814
874 1 -9.26482 0.0277983
440 3 -8.79233 0.00278525
445 3 -9.8724 0.0544941
439 3 -9.19372 0.0377525
441 3 -9.05205 0.00249037
442 3 -5.6965 0.00956896
443 3 -9.06815 0.0380635
890 3 -8.97897 0.0205483
448 3 -11.5119 0.108965
862 3 -9.56918 0.0094882
879 2 -33.921 0.00412294
437 3 -11.5092 0.0483907
433 3 -9.38263 0.0553313
870 1 -8.40022 0.0351433
884 3 -9.39441 0.0194333
895 3 -8.73321 0.0179891
891 3 -9.29272 0.0231859
887 3 -9.36655 0.0575067
875 1 -9.34465 0.0186128
869 1 -3.66105 0.0328961
395 1 -6.18292 0.0475114
432 2 -26.6119 0.0480451
841 1 -4.57938 0.0392845
452 1 -10.1444 0.041901
461 3 -8.93925 0.0450967
462 3 -8.24079 0.0116249
465 3 -3.96907 0.058309
466 3 -6.76888 0.0131402
480 1 -10.9085 0.0652074
489 3 -8.77282 0.00749448
490 3 -7.83808 0.00387612
493 3 -3.99699 0.0144538
494 3 -4.98989 0.0259289
453 1 -11.5505 0.032021
456 1 -9.36821 0.0180361
457 2 -37.6819 0.0056886
460 2 -43.0322 0.017601
463 3 -3.49539 0.0142089
468 3 -7.82341 0.0191976
469 3 -6.39551 0.0395612
473 3 -8.52113 0.00603714
476 3 -3.89938 0.0220766
898 1 -10.3423 0.0228308
900 1 -10.1783 0.018084
902 1 -13.3388 0.0476557
903 1 -9.9897 0.0247048
904 1 -10.0253 0.0345073
905 2 -38.3135 0.025991
907 2 -38.616 0.0514388
908 2 -38.8668 0.0576125
909 3 -8.70994 0.105597
910 3 -7.58435 0.0174284
912 3 -5.98525 0.0279815
913 3 -4.55856 0.0166074
914 3 -6.51865 0.0878594
915 3 -8.49894 0.015771
917 3 -6.86506 0.0761593
918 3 -2.75451 0.0445921
919 3 -8.11032 0.0450576
921 3 -7.879 0.0110045
923 3 -6.60193 0.0507342
924 3 -8.26514 0.0551724
481 1 -13.5022 0.0214226
484 1 -9.76077 0.0218456
485 2 -37.7193 0.0643444
488 2 -43.519 0.0212541
491 3 -4.08066 0.0100828
496 3 -7.97456 0.0653233
497 3 -5.96544 0.0234419
501 3 -7.81769 0.0726914
504 3 -2.40907 0.00841232
926 1 -10.7324 0.0289095
928 1 -10.6829 0.0455926
929 1 -13.0006 0.0172858
930 1 -13.7005 0.0116428
931 1 -9.85794 0.0132657
932 1 -10.055 0.0340593
933 2 -38.0236 0.0255334
935 2 -41.0593 0.0477846
936 2 -39.0968 0.0512517
937 3 -8.07818 0.047242
938 3 -7.44103 0.0188819
940 3 -5.2805 0.0742574
941 3 -6.27213 0.0592189
942 3 -5.36052 0.016091
943 3 -8.57236 0.0631356
945 3 -6.85631 0.0130029
946 3 0.102891 0.00614961
947 3 -7.00251 0.0371696
949 3 -7.74945 0.0391423
951 3 -6.66536 0.0137171
952 3 -4.20077 0.0413405
899 1 -7.92813 0.0293529
955 1 -9.35678 0.00309642
522 3 -6.17076 0.0183762
546 3 -9.52156 0.0210912
518 3 -9.05217 0.0375971
536 1 -7.9242 0.0280667
521 3 -9.48102 0.0266788
549 3 -10.0615 0.0414554
535 1 -4.70411 0.032776
550 3 -9.09953 0.0422421
545 3 -9.1503 0.0253316
508 1 -9.47697 0.0134118
974 3 -3.57178 0.0295119
1009 1 -4.51069 0.0253527
547 3 -10.7646 0.0120368
525 3 -8.36081 0.0344027
991 2 -36.8182 0.082003
986 1 -9.60772 0.0486521
537 1 -8.70007 0.0134794
963 2 -39.9151 0.0331285
509 1 -12.7257 0.00875699
984 1 -9.52045 0.156364
975 3 -7.6565 0.00135891
1002 3 -6.0335 0.0126466
541 2 -34.2292 0.0631177
968 3 -6.08152 0.00950829
964 2 -38.597 0.0904092
560 3 -12.2252 0.0828272
996 3 -8.82697 0.0344517
989 2 -36.3696 0.0449528
565 1 -8.31039 0.12618
519 3 -8.7809 0.00384412
966 3 -8.37108 0.066975
1008 3 -5.02902 0.0171433
1003 3 -8.39993 0.0426084
982 1 -8.38869 0.0154198
992 2 -37.5873 0.0146195
998 3 -7.05411 0.00213384
999 3 -8.91412 0.0149908
985 1 -12.2178 0.0120895
961 2 -37.292 0.0348595
971 3 -8.7767 0.00823534
997 3 -8.58514 0.000213907
988 1 -9.43632 0.0255857
557 3 -9.82917 0.0437812
553 3 -9.64898 0.0175655
969 3 -6.05421 0.0394341
1007 3 -9.04464 0.028708
994 3 -8.58034 0.022174
524 3 -8.45954 0.0183794
540 1 -8.91766 0.0595374
544 2 -27.3182 0.0377486
959 1 -9.31239 0.0826742
957 1 -11.9742 0.0301642
960 1 -9.27847 0.0139198
516 2 -32.6846 0.0985765
987 1 -9.28927 0.101735
970 3 -6.21237 0.102429
1005 3 -8.2345 0.00656404
954 1 -9.64581 0.0475145
958 1 -11.6402 0.0364855
513 2 -35.1459 0.0385812
980 3 -6.46765 0.00794458
977 3 -8.07951 0.000535229
552 3 -8.95088 0.0199968
532 3 -5.77994 0.0236372
973 3 -6.80634 0.0400081
1001 3 -7.54418 0.0748245
965 3 -8.44257 0.0201039
956 1 -10.0867 0.0178429
529 3 -8.52361 0.143651
512 1 -9.19585 0.0292598
979 3 -8.26793 0.0148504
993 3 -8.68402 0.00621683
981 1 -6.29501 0.0402985
564 1 -7.78511 0.038409
573 3 -8.78105 0.0347426
574 3 -8.98264 0.0214328
577 3 -12.7724 0.111783
578 3 -9.50912 0.0237626
592 1 -7.53965 0.09997
601 3 -9.24674 0.0231262
602 3 -9.38576 0.0225404
605 3 -12.7386 0.0225875
606 3 -11.1814 0.00378646
591 1 -1.79672 0.00710006
568 1 -9.28054 0.00214946
569 2 -34.5692 0.0647266
572 2 -25.4145 0.0288852
575 3 -11.5396 0.0542749
580 3 -8.65214 0.0462409
581 3 -9.9472 0.0158457
585 3 -9.75621 0.0216813
588 3 -11.3795 0.0156635
1010 1 -8.22968 0.0141599
1012 1 -9.28746 0.0162153
1013 1 -11.3682 0.0346822
1014 1 -8.98246 0.0251682
1015 1 -9.4477 0.0112846
1016 1 -9.36937 0.0234541
1017 2 -37.1253 0.105584
1019 2 -35.2258 0.0947194
1020 2 -38.7449 0.00318791
1021 3 -8.92942 0.0372505
1022 3 -8.33912 0.0328677
1024 3 -9.49151 0.0405154
1025 3 -7.00739 0.0384176
1026 3 -8.33046 0.0214909
1027 3 -8.70125 0.0639213
1029 3 -7.15712 0.0166261
1030 3 -8.56449 0.0259865
1031 3 -8.64545 0.0350143
1033 3 -8.86084 0.0483635
1035 3 -9.33383 0.00606314
1036 3 -6.81382 0.0417845
593 1 -7.05911 0.113647
596 1 -8.95075 0.0377236
597 2 -34.4786 0.0312525
600 2 -25.8866 0.0993014
603 3 -9.75603 0.0206299
608 3 -8.7136 0.0596722
609 3 -9.45203 0.00943606
613 3 -9.88223 0.0317853
616 3 -13.6059 0.00633378
1038 1 -8.53536 0.024145
1040 1 -9.59787 0.0474578
1041 1 -12.056 0.051716
1042 1 -10.2212 0.028349
1043 1 -9.29998 0.0571069
1044 1 -9.45283 0.0946238
1045 2 -35.8069 0.0230942
1047 2 -35.8469 0.0130145
1048 2 -36.4607 0.0167565
1049 3 -8.83185 0.018254
1050 3 -8.80953 0.00756837
1052 3 -9.36532 0.0117442
1053 3 -7.10427 0.0622422
1054 3 -7.32305 0.0966356
1055 3 -8.91979 0.0140362
1057 3 -7.90219 0.0254673
1058 3 -5.96834 0.0815396
1059 3 -8.30138 0.0322
1061 3 -7.9768 0.0352076
1063 3 -9.00003 0.0257138
1064 3 -5.28416 0.0107181
1037 1 -4.53272 0.0217377
1011 1 -6.81004 0.0402922
620 1 -7.1648 0.0124303
648 1 -7.94252 0.00995003
657 3 -9.2823 0.0271014
630 3 -9.62778 0.0204629
662 3 -10.8124 0.0567998
658 3 -8.68342 0.00880879
634 3 -11.3825 0.0166455
661 3 -9.88079 0.0155263
619 1 -2.15113 0.01044
647 1 -1.57337 0.0144223
633 3 -13.8405 0.00397086
629 3 -8.95206 0.00932775
1109 3 -12.1997 0.0255457
1114 3 -10.4482 0.0560257
669 3 -9.59455 0.0548406
664 3 -8.90594 0.0437281
656 2 -28.8894 0.0407716
1091 3 -9.85706 0.0129375
1082 3 -8.57495 0.00856207
1101 2 -34.5803 0.017701
1119 3 -10.0154 0.0467226
1099 1 -9.07646 0.0255467
665 3 -8.94039 0.0181835
1115 3 -9.31677 0.020404
631 3 -12.4528 0.0325831
1106 3 -9.04297 0.0392552
1111 3 -8.79732 0.035024
1123 1 -3.98435 0.0179442
1103 2 -33.4201 0.0246016
1075 2 -35.6121 0.0466589
1073 2 -35.1923 0.0356446
1105 3 -8.96171 0.104844
1066 1 -8.04207 0.0168958
1072 1 -9.4658 0.0325065
1097 1 -7.40131 0.0413686
621 1 -7.44103 0.0116266
653 2 -35.2768 0.109481
1086 3 -5.66669 0.065305
1080 3 -9.30218 0.0106643
624 1 -8.85286 0.00809293
1085 3 -9.30439 0.0420843
1069 1 -9.79637 0.00494637
641 3 -10.151 0.0290422
1098 1 -7.91769 0.0346036
1078 3 -8.75044 0.00956697
625 2 -33.8753 0.0389507
1093 1 -2.09341 0.0976344
1087 3 -8.486 0.0285863
1083 3 -8.95121 0.00571699
659 3 -9.33355 0.0179638
1071 1 -9.09412 0.0510642
637 3 -10.0565 0.0138141
636 3 -9.3421 0.0571031
1100 1 -9.18417 0.117878
1117 3 -9.61686 0.0580792
628 2 -23.6342 0.0305371
672 3 -13.7242 0.0238884
1070 1 -8.28994 0.0644996
1108 3 -9.9603 0.0168439
1068 1 -8.61845 0.043292
652 1 -9.18818 0.041494
1113 3 -9.49926 0.0343717
1095 1 -2.35693 0.0236389
644 3 -12.3105 0.000327725
1092 3 -9.95559 0.0439257
649 1 -6.62358 0.0626604
1110 3 -10.2976 0.0485526
1077 3 -8.69727 0.0136534
1089 3 -9.11423 0.035356
1076 2 -26.7904 0.0915233
1094 1 -8.10999 0.109596
1096 1 -7.82117 0.00710228
1120 3 -13.6981 0.0454587
1081 3 -11.5952 0.0111784
1104 2 -24.5784 0.0184512
676 1 -8.91337 0.00220311
685 3 -8.54195 0.0921516
686 3 -8.44724 0.0416987
689 3 -8.19478 0.0129999
690 3 -9.23404 0.0274475
704 1 -9.3068 0.136888
713 3 -9.19861 0.0701205
714 3 -8.85877 0.00627893
717 3 -7.49617 0.0424434
718 3 -7.97464 0.0261542
677 1 -9.41208 0.0433981
680 1 -9.22068 0.043898
681 2 -35.9183 0.0357346
684 2 -32.3764 0.0222626
687 3 -9.61457 0.0139877
692 3 -9.0542 0.0168985
693 3 -7.91255 0.0705947
697 3 -9.28865 0.0099282
700 3 -7.76419 0.00349619
1122 1 -8.8874 0.0734574
1124 1 -8.47593 0.0541896
1125 1 -7.71117 0.00443328
1126 1 -9.27998 0.0126188
1127 1 -9.10666 0.00830978
1128 1 -9.20511 0.0578271
1129 2 -34.9252 0.0681347
1131 2 -34.5855 0.0265845
1132 2 -28.6785 0.0329122
1133 3 -8.89417 0.00104595
1134 3 -8.93936 0.0269453
1136 3 -8.75059 0.04049
1137 3 -9.49559 0.0329568
1138 3 -9.24678 0.0229014
1139 3 -9.04201 0.0101649
1141 3 -9.27897 0.0170439
1142 3 -6.85937 0.00773134
1143 3 -8.86482 0.132406
1145 3 -9.65469 0.0399459
1147 3 -9.22944 0.0590987
1148 3 -12.6669 0.042603
705 1 -9.87412 0.0186548
708 1 -9.01346 0.0189016
709 2 -36.2239 0.130172
712 2 -35.1034 0.06233
715 3 -7.2509 0.058756
720 3 -8.61748 0.0357251
721 3 -7.82073 0.0477191
725 3 -9.0674 0.0348859
728 3 -8.88206 0.0389133
1150 1 -9.10562 0.0286813
1152 1 -8.96787 0.0109444
1153 1 -8.92011 0.0953287
1154 1 -10.1166 0.0281042
1155 1 -9.33142 0.00809552
1156 1 -9.18567 0.0767146
1157 2 -35.1455 0.0119313
1159 2 -36.1645 0.0252396
1160 2 -30.2225 0.0218982
1161 3 -8.92585 0.114898
1162 3 -8.96437 0.00984148
1164 3 -7.90944 0.0166214
1165 3 -9.86204 0.0369179
1166 3 -8.47071 0.0354486
1167 3 -9.06749 0.0198099
1169 3 -8.4351 0.0920932
1170 3 -5.97514 0.0495981
1171 3 -8.36003 0.00652214
1173 3 -9.18435 0.0488288
1175 3 -9.01955 0.0244157
1176 3 -10.0065 0.0206354
1149 1 -6.60971 0.00213902
745 3 -9.53099 0.0125055
760 1 -9.07688 0.0447658
774 3 -8.53722 0.013637
769 3 -8.75035 0.0271395
759 1 -5.76928 0.0247407
742 3 -8.76992 0.0385202
732 1 -8.94723 0.021182
746 3 -8.3235 0.00696372
741 3 -9.09156 0.0163839
773 3 -6.97495 0.0555733
770 3 -8.69358 0.0280893
781 3 -9.1725 0.0148334
1218 3 -8.87208 0.00837801
1193 3 -11.4981 0.000595532
1185 2 -33.9469 0.031075
1183 1 -9.08525 0.0248379
733 1 -10.3709 0.0314957
1180 1 -8.50073 0.0474413
1231 3 -8.43022 0.0751884
737 2 -35.5259 0.00431423
1199 3 -8.37773 0.0245304
771 3 -8.08515 0.0208741
1208 1 -8.4885 0.0239663
748 3 -8.74707 0.0140227
749 3 -8.52676 0.0653582
743 3 -8.4245 0.00789461
1217 3 -8.94364 0.0509628
761 1 -9.54485 0.0303047
1223 3 -8.51997 0.0445893
764 1 -9.39683 0.0150593
1189 3 -8.65903 0.035177
1192 3 -8.30141 0.00614055
768 2 -34.1949 0.0629569
1212 1 -8.93839 0.0639677
1194 3 -9.05938 0.0316336
1222 3 -9.32538 0.0179946
776 3 -7.92871 0.0224489
1204 3 -11.2588 0.0161844
1201 3 -9.41758 0.0362054
1197 3 -9.45628 0.0302231
1203 3 -9.44078 0.019965
1220 3 -7.89846 0.0326122
777 3 -8.16557 0.0940881
740 2 -32.6305 0.0195882
784 3 -9.08459 0.00789301
1213 2 -35.8277 0.0177354
1207 1 -4.47839 0.0469381
1184 1 -9.12505 0.0399943
1195 3 -8.91048 0.026559
756 3 -7.60051 0.0293867
1229 3 -10.0637 0.0565374
1206 1 -9.18769 0.0148589
789 1 -11.0864 0.00196727
1221 3 -7.58992 0.0596866
1215 2 -35.2854 0.0343687
1232 3 -12.187 0.0362734
765 2 -36.7065 0.0193524
1210 1 -10.2217 0.0152804
1233 1 -8.90659 0.00138033
1179 1 -5.83675 0.0750339
1188 2 -26.4809 0.00952387
1216 2 -31.8127 0.0510312
1187 2 -35.8819 0.0152272
1209 1 -7.46223 0.0698713
1227 3 -8.81491 0.00788074
1225 3 -7.99416 0.0217236
1198 3 -6.43724 0.0240362
1178 1 -8.84019 0.0063006
736 1 -9.14419 0.0101074
1190 3 -9.47374 0.00282679
1181 1 -8.50044 0.0431172
1226 3 -6.21426 0.022383
753 3 -8.92214 0.0605188
1211 1 -9.74984 0.0218512
1182 1 -9.22043 0.0786478
788 1 -10.586 0.0175881
797 3 -8.96397 0.00474452
798 3 -7.53919 0.010555
801 3 -3.5987 0.0190282
802 3 -6.42632 0.0247407
816 1 -10.0853 0.0106797
825 3 -8.32371 0.0122377
826 3 -8.18097 0.0177316
829 3 -7.56905 0.0193107
830 3 -5.29825 0.0267218
792 1 -9.70945 0.0453326
793 2 -38.4821 0.0892112
796 2 -41.6432 0.019047
799 3 -3.78434 0.0634908
804 3 -7.72586 0.029575
805 3 -6.10161 0.00626831
809 3 -8.2808 0.0103141
812 3 -5.98514 0.0139206
1234 1 -10.3334 0.00160082
1236 1 -10.4509 0.0192036
1237 1 -11.2559 0.0385788
1238 1 -13.2851 0.0114465
1239 1 -10.0812 0.0382842
1240 1 -9.29138 0.0121004
1241 2 -37.4541 0.0133508
1243 2 -38.4235 0.0796496
1244 2 -41.4813 0.0341218
1245 3 -8.69865 0.0536338
1246 3 -8.07901 0.00881461
1248 3 -6.73542 0.039198
1249 3 -3.99171 0.0134558
1250 3 -6.22957 0.0240892
1251 3 -8.4552 0.036544
1253 3 -6.43774 0.0322069
1254 3 -2.66591 0.0599457
1255 3 -7.52397 0.0297548
1257 3 -8.61024 0.021948
1259 3 -6.57586 0.0710143
1260 3 -5.18994 0.125457
817 1 -13.6195 0.0663613
820 1 -9.89521 0.0110471
821 2 -36.9625 0.0785316
824 2 -38.7198 0.0165123
827 3 -4.71576 0.0792517
832 3 -7.73081 0.028254
833 3 -7.30283 0.0905388
837 3 -7.95153 0.00784049
840 3 -3.60693 0.00497748
1262 1 -10.7951 0.00468258
1264 1 -10.9902 0.0304398
1265 1 -13.2469 0.0363367
1266 1 -14.5783 0.0677442
1268 1 -9.70937 0.0142196
1269 2 -38.7262 0.00961596
1271 2 -41.8691 0.0305228
1272 2 -44.1964 0.0247763
1273 3 -8.52717 0.0319639
1274 3 -7.38517 0.0241151
1276 3 -4.72825 0.0187508
1277 3 -2.97677 0.0463526
1278 3 -4.71378 0.0418919
1279 3 -8.34969 0.0612147
1281 3 -6.04659 0.0181462
1282 3 1.02021 0.0414345
1283 3 -6.73324 0.00914083
1285 3 -8.21828 0.0339916
1287 3 -6.43124 0.0593471
1288 3 -3.01438 0.00303195
854 3 -9.36224 0.0661606
853 3 -9.18297 0.0070306
844 1 -8.30054 0.0474482
871 1 -3.89277 0.0360801
872 1 -8.85864 0.0214741
881 3 -9.14439 0.0139158
857 3 -11.2893 0.01429
858 3 -8.49276 0.0703366
885 3 -7.79632 0.0137494
882 3 -8.27553 0.0115061
886 3 -9.13508 0.0831659
843 1 -6.3484 0.0804566
1316 3 -2.78579 0.0499452
845 1 -10.983 0.0144111
1307 3 -9.03601 0.0749543
1304 3 -6.46799 0.0268998
877 2 -36.5869 0.0384297
1293 1 -13.9371 0.0193524
861 3 -8.47581 0.0244058
1329 3 -8.59356 0.0272455
1344 3 -4.62792 0.0891383
1299 2 -40.3877 0.0550215
1290 1 -9.63894 0.0225356
893 3 -9.08007 0.0381668
888 3 -8.17614 0.101797
896 3 -10.8702 0.00169817
883 3 -6.93754 0.0428445
1330 3 -8.38563 0.0258277
1321 1 -13.115 0.0696508
1313 3 -7.51204 0.0315489
1334 3 -6.37258 0.0389697
1343 3 -7.84732 0.0584666
1297 2 -38.4674 0.00909667
1320 1 -9.98913 0.0509122
1292 1 -10.5521 0.0159685
889 3 -7.98254 0.0135273
1318 1 -9.42116 0.0345966
1302 3 -7.69259 0.0277447
849 2 -35.2328 0.0211221
1325 2 -37.6058 0.0517885
1335 3 -8.74875 0.0169632
1322 1 -11.2531 0.0259265
1339 3 -7.99583 0.147452
1337 3 -6.91509 0.0876552
1341 3 -7.9411 0.0208774
852 2 -29.9962 0.0202512
1309 3 -6.20315 0.0291117
873 1 -8.86048 0.0222577
1306 3 -5.68642 0.0728198
1317 1 -6.85388 0.0560017
1311 3 -7.0657 0.0286242
868 3 -8.60534 0.0163321
1323 1 -9.43875 0.0319009
1267 1 -10.068 0.012572
1295 1 -9.42648 0.0142702
1338 3 -4.47594 0.0165762
1300 2 -43.4585 0.07719
880 2 -33.9436 0.0404252
876 1 -9.49262 0.103815
848 1 -9.02835 0.00897219
1294 1 -12.2304 0.0153876
1328 2 -36.0727 0.0311191
860 3 -8.76115 0.0264861
855 3 -8.9912 0.0101116
865 3 -8.71579 0.116417
901 1 -11.1468 0.00164115
1305 3 -4.79725 0.0483398
1333 3 -7.67309 0.0680084
1327 2 -38.0896 0.0606786
1324 1 -9.80936 0.00569099
1315 3 -7.98416 0.0221922
1296 1 -10.2219 0.0399849
1332 3 -7.69394 0.0202094
1310 3 -1.03932 0.058394
911 3 -4.54599 0.0168064
916 3 -7.2441 0.0691966
1346 1 -10.4825 0.0235327
1355 2 -40.4266 0.0257945
1360 3 -6.22103 0.0196191
1363 3 -8.47095 0.0413782
1371 3 -7.30293 0.01433
939 3 -5.31661 0.0588296
944 3 -7.9867 0.0028131
1374 1 -10.2395 0.0975554
1383 2 -39.1018 0.0187983
1388 3 -5.88593 0.0212761
1391 3 -8.43152 0.0633385
1395 3 -7.54279 0.051127
1351 1 -9.80749 0.0460391
1367 3 -7.3346 0.0239674
1379 1 -9.62207 0.0152336
1345 1 -8.7276 0.0551631
1366 3 -2.74893 0.0137001
1378 1 -12.2325 0.00256031
1394 3 -1.52199 0.0149443
1399 3 -7.85079 0.063168
1350 1 -12.9524 0.0266457
1348 1 -10.0415 0.0544914
1349 1 -13.2709 0.0166187
1352 1 -9.45198 0.0673866
1353 2 -35.51 0.0386498
1356 2 -37.1792 0.0204587
1357 3 -8.81459 0.0359717
1358 3 -8.43264 0.0189264
1359 3 -8.02558 0.0214273
1361 3 -5.6012 0.0063252
1362 3 -5.69922 0.0623751
1364 3 -8.99064 0.025683
1365 3 -7.81014 0.0431894
1369 3 -8.31913 0.0174379
1372 3 -4.39327 0.00403509
1794 1 -9.77196 0.0183176
1798 1 -11.642 0.0190543
1799 1 -9.07462 0.0296709
1803 2 -41.057 0.00946502
1808 3 -5.42625 0.161729
1811 3 -8.67948 0.0638631
1814 3 -1.12102 0.0168975
1815 3 -7.31747 0.0542879
1819 3 -8.63997 0.00497572
1376 1 -9.31756 0.0332904
1377 1 -10.3227 0.0267373
1380 1 -9.03932 0.0236219
1381 2 -35.5283 0.0236468
1384 2 -29.603 0.0573139
1385 3 -8.84592 0.0293583
1386 3 -8.54793 0.0527689
1387 3 -10.9605 0.0476656
1389 3 -8.87605 0.0163147
1390 3 -6.96349 0.0346311
1392 3 -9.32617 0.0399622
1393 3 -8.33899 0.0631213
1397 3 -9.5284 0.0161784
1400 3 -9.32017 0.0564858
1822 1 -8.32657 0.00144669
1826 1 -8.19671 0.0145465
1831 2 -35.0978 0.00490532
1836 3 -9.22186 0.0116267
1839 3 -9.23001 0.0915342
1842 3 -9.22907 0.0822412
1843 3 -9.0603 0.0219168
1847 3 -9.88232 0.0410684
2219 1 -9.95506 0.0497615
1821 1 -6.08596 0.0337662
1827 1 -8.90799 0.0836983
1419 3 -8.933 0.0851266
1450 3 0.826314 0.010125
1416 3 -6.02989 0.0134839
1444 3 -5.70168 0.030009
1427 3 -7.29984 0.00567909