ITEM: TIMESTEP
0
ITEM: NUMBER OF ATOMS
15
ITEM: BOX BOUNDS pp pp ff
0.0000000000000000e+00 7.5204971283511398e+01
0.0000000000000000e+00 7.6781222183235400e+01
0.0000000000000000e+00 1.2000000000000000e+02
ITEM: ATOMS id type c_voronoi[1] c_stress[1] c_stress[2] c_stress[3]
46603 4 7.21109 99661.5 16984.8 -266701
46604 4 6.57607 582.074 -88141.6 -179860
46621 4 7.96138 -4673.24 34237.7 183315
46614 4 7.03619 47512.1 44145.2 206423
46600 4 7.07884 -54673 -29924.5 102140
46599 4 7.13235 -254703 -199228 -361175
46612 4 7.29705 27662.9 55153.9 81815.3
46624 4 6.92661 -70671.5 -105925 3303.86
46620 4 9.07831 29846.8 17643.9 38789.2
46602 4 7.54893 9493.74 44470.5 55572.6
46623 4 6.87474 1882.19 13958.3 4616.39
46615 4 4.72316 -183978 -128513 -207535
46618 4 7.67635 31606 90475.8 39765
46625 4 6.84902 88022.1 52529.7 -108813
46601 4 8.70724 87103.2 38737.7 -67572.2
