ITEM: TIMESTEP
0
ITEM: NUMBER OF ATOMS
15
ITEM: BOX BOUNDS pp pp ff
0.0000000000000000e+00 7.5204971283511398e+01
0.0000000000000000e+00 7.6781222183235400e+01
0.0000000000000000e+00 1.2000000000000000e+02
ITEM: ATOMS id type c_voronoi[1] c_stress[1] c_stress[2] c_stress[3]
46603 4 7.21109 99661.5 16984.8 -266701
46612 4 7.29705 27662.9 55153.9 81815.3
46614 4 7.03619 47512.1 44145.2 206423
46623 4 6.87474 1882.19 13958.3 4616.39
46621 4 7.96138 -4673.24 34237.7 183315
46620 4 9.07831 29846.8 17643.9 38789.2
46602 4 7.54893 9493.74 44470.5 55572.6
46599 4 7.13235 -254703 -199228 -361175
46615 4 4.72316 -183978 -128513 -207535
46618 4 7.67635 31606 90475.8 39765
46624 4 6.92661 -70671.5 -105925 3303.86
46601 4 8.70724 87103.2 38737.7 -67572.2
46604 4 6.57607 582.074 -88141.6 -179860
46600 4 7.07884 -54673 -29924.5 102140
46625 4 6.84902 88022.1 52529.7 -108813
ITEM: TIMESTEP
10000
ITEM: NUMBER OF ATOMS
15
ITEM: BOX BOUNDS pp pp ff
0.0000000000000000e+00 7.5204971283511398e+01
0.0000000000000000e+00 7.6781222183235400e+01
0.0000000000000000e+00 1.2000000000000000e+02
ITEM: ATOMS id type c_voronoi[1] c_stress[1] c_stress[2] c_stress[3]
46615 4 7.32528 -81940.8 33969.8 10379.5
46603 4 5.68585 -91063.7 -184698 64189.8
46612 4 6.57452 -185334 31475.4 -82825.4
46614 4 7.17261 -32053.8 77551.4 50751.3
46623 4 8.30088 41880 56620.3 83731.6
46621 4 8.42227 18320.4 -99222.9 -36846.8
46625 4 8.05358 71009.4 -23498.6 44036.6
46620 4 8.37695 40605.5 -125107 83183.4
46602 4 6.95024 82182.6 -44729.3 75339.1
46599 4 6.59183 8144.18 -102115 -146824
46618 4 6.9816 -172492 72316.8 67515
46624 4 7.07656 -22861.1 -100396 -64952.2
46601 4 4.68325 -499718 -191127 59038.8
46604 4 6.86998 -20670.3 -1520.69 64154.7
46600 4 6.97872 -36186.8 -116962 85738.6
ITEM: TIMESTEP
20000
ITEM: NUMBER OF ATOMS
15
ITEM: BOX BOUNDS pp pp ff
0.0000000000000000e+00 7.5204971283511398e+01
0.0000000000000000e+00 7.6781222183235400e+01
0.0000000000000000e+00 1.2000000000000000e+02
ITEM: ATOMS id type c_voronoi[1] c_stress[1] c_stress[2] c_stress[3]
46615 4 7.62504 -123507 -461719 -38084.5
46603 4 6.571 4821.27 155215 -167575
46612 4 7.20273 -54867.3 14981 3130.35
46614 4 7.14415 -36525.7 82972.5 -44637.6
46623 4 7.66536 1446.63 89654.9 114308
46621 4 8.07977 10952.9 -28404.6 -103732
46625 4 6.67974 23922.9 27628.4 113098
46601 4 5853.64 -16313.1 -413.406 -68.3125
46620 4 8.42052 64899.3 16618.5 -274714
46602 4 6.80492 33886 54577.6 -251861
46599 4 7.12893 12663.6 92219.1 8474.89
46618 4 5.86538 51788.7 -114677 8587.36
46624 4 5.92196 51686.2 17655.3 -2876.04
46604 4 6.90381 84863.6 162355 17084
46600 4 6.54252 17338 -72478.7 -8507.69
ITEM: TIMESTEP
30000
ITEM: NUMBER OF ATOMS
15
ITEM: BOX BOUNDS pp pp ff
0.0000000000000000e+00 7.5204971283511398e+01
0.0000000000000000e+00 7.6781222183235400e+01
0.0000000000000000e+00 1.2000000000000000e+02
ITEM: ATOMS id type c_voronoi[1] c_stress[1] c_stress[2] c_stress[3]
46603 4 6.36488 67354 113918 21814
46612 4 7.23774 -86265.3 -233135 -354477
46614 4 6.81806 -8009.44 38805.5 -16695.3
46623 4 4.89676 40894.1 115173 -202004
46618 4 6.97204 7693.9 -443276 -16032.9
46621 4 7.53842 -369473 71792.7 2107.93
46625 4 7.16845 -133462 104630 -36625.9
46620 4 6.72583 -402.868 95805.3 -147423
46602 4 6.96471 116361 114814 -349113
46599 4 5.69232 -110711 24158.9 -927745
46615 4 6.77244 -352056 -155351 4583.65
46624 4 5.9321 90739.3 -54587 -545747
46604 4 7.12517 96233 188962 -66002.6
46600 4 6.84456 45216.2 121572 117335
46601 4 7944.21 -16449.6 -497.501 2.32821
ITEM: TIMESTEP
40000
ITEM: NUMBER OF ATOMS
16
ITEM: BOX BOUNDS pp pp ff
0.0000000000000000e+00 7.5204971283511398e+01
0.0000000000000000e+00 7.6781222183235400e+01
0.0000000000000000e+00 1.2000000000000000e+02
ITEM: ATOMS id type c_voronoi[1] c_stress[1] c_stress[2] c_stress[3]
46603 4 6.8516 107996 123720 73707.9
46612 4 6.80766 23649.9 98317.3 -22476.5
46614 4 6.20376 11278.2 154423 84460
46623 4 7.50025 123084 15582.9 -114234
46618 4 5.38976 -550417 -544536 -104184
46621 4 7.74023 32479.9 -36213.7 -101198
46625 4 7.53444 -24076.4 24662.3 9735.12
46620 4 6.15058 72417.3 -269196 -69030.5
46602 4 7.35002 52477.9 -134126 79891.3
46599 4 6.88763 -33374.9 55323.4 -186865
46624 4 5.6093 130577 -166324 -93063.2
46615 4 7.52596 113043 -123070 -129810
46601 4 23179.7 -16441.6 -511.146 -25.2776
46604 4 6.9407 -36945.5 113772 -2778.9
46626 4 8.16979 -20549.4 -16879.1 75356.6
46600 4 7.57746 -72054.7 -66756 -68339.1
ITEM: TIMESTEP
50000
ITEM: NUMBER OF ATOMS
16
ITEM: BOX BOUNDS pp pp ff
0.0000000000000000e+00 7.5204971283511398e+01
0.0000000000000000e+00 7.6781222183235400e+01
0.0000000000000000e+00 1.2000000000000000e+02
ITEM: ATOMS id type c_voronoi[1] c_stress[1] c_stress[2] c_stress[3]
46603 4 8.08023 -301989 -187471 -111568
46612 4 7.66561 51158.5 -22890 -32015.5
46614 4 6.49127 -199241 -717330 -46875.3
46623 4 7.84354 -352577 -616771 -1.37479e+06
46618 4 6.72897 49874.2 62025 -271322
46625 4 4.74498 -29595.1 -19980.5 -11838.9
46621 4 8.26838 -109297 2058.08 70449.5
46620 4 5.08464 -354409 -174802 -107557
46602 4 7.24568 -12306.4 -33556.9 85111.6
46599 4 6.9615 50289.7 79532.7 77925.8
46624 4 6.17363 -196497 -281409 -99314.7
46601 4 25722.3 -16440.6 -520.589 -12.1839
46615 4 9.59958 -102768 -195342 -106366
46604 4 7.08424 -92330.6 -278663 -22964.8
46626 4 7.03638 18339.3 115673 -8734.4
46600 4 6.7212 47725.7 36301.2 161889
ITEM: TIMESTEP
60000
ITEM: NUMBER OF ATOMS
16
ITEM: BOX BOUNDS pp pp ff
0.0000000000000000e+00 7.5204971283511398e+01
0.0000000000000000e+00 7.6781222183235400e+01
0.0000000000000000e+00 1.2000000000000000e+02
ITEM: ATOMS id type c_voronoi[1] c_stress[1] c_stress[2] c_stress[3]
46603 4 8.8821 105183 -13704.4 54679.3
46612 4 7.255 -146874 14597.8 33590.5
46614 4 6.82291 33483.5 -190286 -12509.7
46623 4 5.54214 -125483 -715303 -109503
46618 4 8.47304 31093.7 17075.3 181094
46625 4 8.32235 -240440 -138111 -133441
46621 4 8.73494 51452.2 62730.4 103729
46620 4 6.31725 -102803 -632170 -74286.3
46602 4 7.90514 -201316 -178386 -244823
46601 4 27558.7 -16441.6 -521.458 -17.448
46599 4 7.54578 3287.97 3257.35 -631399
46624 4 6.73589 38553.1 105494 18634.1
46615 4 7.11593 -118778 -181120 -298590
46604 4 7.8931 38168.8 112434 65789.6
46626 4 6.90162 71271.6 95310.1 68069.5
46600 4 6.95243 181532 -255088 102340
ITEM: TIMESTEP
70000
ITEM: NUMBER OF ATOMS
17
ITEM: BOX BOUNDS pp pp ff
0.0000000000000000e+00 7.5204971283511398e+01
0.0000000000000000e+00 7.6781222183235400e+01
0.0000000000000000e+00 1.2000000000000000e+02
ITEM: ATOMS id type c_voronoi[1] c_stress[1] c_stress[2] c_stress[3]
46612 4 7.80363 -47001.9 -273481 -138796
46603 4 8.84281 -136171 -306844 -62325.3
46614 4 7.02347 44598.9 110494 79154.5
46623 4 5.43213 -629255 -48796.6 -523694
46618 4 8.99794 45813.7 -56299.1 36009.4
46621 4 7.83725 -19854 -283793 52828.9
46620 4 6.82078 -641411 -235792 -155910
46602 4 5.32792 138452 34604.9 -80465.4
46599 4 8.23806 -438432 -36911.8 -228474
46627 4 6.82393 86545.1 145314 90893.9
46624 4 7.59181 -22336.5 55363.2 -160455
46626 4 7.00286 122960 101533 140232
46615 4 5.4422 106626 -338343 -140350
46604 4 9.01196 37517.9 -80717.1 -86089.6
46625 4 7.52233 69331 45473.8 118917
46600 4 6.90124 97424.8 -103662 96816.9
46601 4 29290.9 -16443.3 -521.147 -18.2296
ITEM: TIMESTEP
80000
ITEM: NUMBER OF ATOMS
18
ITEM: BOX BOUNDS pp pp ff
0.0000000000000000e+00 7.5204971283511398e+01
0.0000000000000000e+00 7.6781222183235400e+01
0.0000000000000000e+00 1.2000000000000000e+02
ITEM: ATOMS id type c_voronoi[1] c_stress[1] c_stress[2] c_stress[3]
46612 4 7.51869 39972.6 43043.7 7509.31
46603 4 8.39227 -17204.4 -33969 -212940
46614 4 7.03299 50479.8 94200.8 -10917.4
46623 4 5.84451 -314400 147537 -161304
46618 4 5.8059 -151691 -122176 129234
46621 4 8.19297 -342992 -65282.2 -47973.3
46620 4 5.7104 -16714.7 -247878 -482104
46602 4 5.93976 103523 -11413.1 -95332.7
46599 4 8.14143 -137718 -25383.8 -274248
46627 4 7.37482 82534 -99474.2 -69757.8
46624 4 6.71 71772.9 -21203.2 57934.5
46615 4 6.30457 -397577 136760 96829.7
46601 4 29438 -16442.8 -521.392 -20.7374
46628 4 6.92601 52650.1 127100 61693.2
46604 4 7.83065 47717.1 6386.18 -97214.1
46626 4 7.05632 161654 50997.4 37043.3
46625 4 7.24294 -32469 36438.6 29142.9
46600 4 7.3023 25398.7 14013.9 -85465
ITEM: TIMESTEP
90000
ITEM: NUMBER OF ATOMS
19
ITEM: BOX BOUNDS pp pp ff
0.0000000000000000e+00 7.5204971283511398e+01
0.0000000000000000e+00 7.6781222183235400e+01
0.0000000000000000e+00 1.2000000000000000e+02
ITEM: ATOMS id type c_voronoi[1] c_stress[1] c_stress[2] c_stress[3]
46612 4 8.63496 5097.46 32977.2 55851.1
46603 4 8.24989 -191468 -49317.3 -6531.16
46614 4 6.77402 -946340 -468173 82781.6
46623 4 4.64359 -1.3085e+06 -616566 -254729
46618 4 7.3749 -210502 -1068.21 -306.097
46621 4 7.81308 -69667.2 -160117 -23073.7
46620 4 6.78452 87244.4 111032 -86901.9
46602 4 4.99108 104080 90745.4 -47296
46599 4 8.46264 -111580 -138012 47936.5
46601 4 30969.1 -16442.9 -521.354 -20.6703
46627 4 7.02998 100396 -79221.8 72291.7
46624 4 7.03345 -92746.1 45073.2 15859.1
46626 4 5.68292 -181064 -9711.66 70705.5
46629 4 73749.1 -412531 -245072 -352147
46615 4 8.343 49298.4 -265939 70118.8
46628 4 7.69085 53310.7 48654 -18781.2
46604 4 7.92183 19852.2 -38143.8 26270.1
46600 4 6.57706 -162602 -77800.9 -48752.8
46625 4 7.87099 28317.5 -19832.7 21659.6
ITEM: TIMESTEP
100000
ITEM: NUMBER OF ATOMS
18
ITEM: BOX BOUNDS pp pp ff
0.0000000000000000e+00 7.5204971283511398e+01
0.0000000000000000e+00 7.6781222183235400e+01
0.0000000000000000e+00 1.2000000000000000e+02
ITEM: ATOMS id type c_voronoi[1] c_stress[1] c_stress[2] c_stress[3]
46601 4 31914.7 -16442.9 -521.354 -20.6703
46603 4 7.82293 -64428.7 -67006.7 31373.7
46612 4 8.65269 -135782 -250768 32583.9
46614 4 5.6453 -87572.8 -42556.2 3904.63
46623 4 5.5018 63995.6 -6039.47 -286992
46625 4 7.32197 32965.9 110193 26132.3
46621 4 7.87202 -122275 -66242.5 14591.3
46602 4 4.66011 -591796 -335307 -15249.1
46599 4 8.56074 51048.1 -14427.4 49812.2
46627 4 7.29278 167180 10231.1 -184807
46624 4 6.73811 -205085 154899 93299
46615 4 6.70214 37891.1 -540243 -220607
46604 4 5.5514 -6301.42 -119106 -129728
46626 4 7.20769 28087.5 67839.5 -48153.9
46600 4 7.36659 -9729.29 65963.1 6935.73
46618 4 8.14396 -47895.9 26035.5 31829
46620 4 7.54211 -6180.22 -26142.5 -309226
46628 4 6.63624 -347673 -103336 -18336.9
ITEM: TIMESTEP
110000
ITEM: NUMBER OF ATOMS
19
ITEM: BOX BOUNDS pp pp ff
0.0000000000000000e+00 7.5204971283511398e+01
0.0000000000000000e+00 7.6781222183235400e+01
0.0000000000000000e+00 1.2000000000000000e+02
ITEM: ATOMS id type c_voronoi[1] c_stress[1] c_stress[2] c_stress[3]
46612 4 8.76927 37784 10061.7 93859.6
46603 4 8.63271 22312.2 -14745.1 -44534.3
46614 4 6.39082 -129440 -109569 -959972
46623 4 5.54798 129820 -116456 -111504
46625 4 7.5103 6766.97 -46895 -2549.85
46618 4 6.35773 -33151 187258 96950.6
46621 4 6.51936 110609 -336155 281.807
46629 4 7.30713 82667.8 17540.6 -124380
46602 4 7.44123 -95700.4 -142612 -434886
46599 4 8.19549 -179096 -10626.5 -137432
46627 4 5.24831 40707.7 -371226 16819
46624 4 6.99557 5505.54 119053 -212117
46615 4 8.23143 -519275 36338.6 152391
46628 4 7.49961 21906 -254673 -70938.2
46601 4 31266.1 -16442.9 -521.354 -20.6703
46604 4 8.35825 33667.2 51256.3 -30735.8
46600 4 7.58111 -324374 70029.2 -15262.9
46626 4 6.7716 54786.6 -183659 2016.54
46620 4 8.54643 32158.5 -68394.2 34006.6
ITEM: TIMESTEP
120000
ITEM: NUMBER OF ATOMS
19
ITEM: BOX BOUNDS pp pp ff
0.0000000000000000e+00 7.5204971283511398e+01
0.0000000000000000e+00 7.6781222183235400e+01
0.0000000000000000e+00 1.2000000000000000e+02
ITEM: ATOMS id type c_voronoi[1] c_stress[1] c_stress[2] c_stress[3]
46615 4 73749.1 -31255 -29648.9 -43797.7
46612 4 7.76631 103477 -15902.4 -39897.2
46603 4 7.33411 36300 70240.8 43182
46614 4 6.62025 49001.7 164256 39181.7
46623 4 5.93214 -20020.7 -62733.7 -157171
46625 4 6.46812 -167236 -410032 -241486
46618 4 6.54855 -93204.5 -140662 -171101
46629 4 6.4652 -206494 -377588 -139396
46621 4 7.54256 36351.6 49965 -59564.1
46602 4 5.81933 -40814.6 -232473 106263
46599 4 9.20712 4675.24 -5780.51 15028.5
46627 4 7.16788 11874.9 4663.02 -4231.62
46624 4 6.79314 103453 184551 -298232
46601 4 32497.2 -16442.9 -521.354 -20.6703
46628 4 7.66216 -2.13472e+06 -109341 -61357.5
46604 4 9.14972 -43844.8 -24849.4 33126.3
46600 4 8.37218 36126.2 -78834.1 70081.8
46626 4 6.44837 -103895 -81068.1 5132.59
46620 4 9.11603 33770.8 24169.8 94202.1
ITEM: TIMESTEP
130000
ITEM: NUMBER OF ATOMS
19
ITEM: BOX BOUNDS pp pp ff
0.0000000000000000e+00 7.5204971283511398e+01
0.0000000000000000e+00 7.6781222183235400e+01
0.0000000000000000e+00 1.2000000000000000e+02
ITEM: ATOMS id type c_voronoi[1] c_stress[1] c_stress[2] c_stress[3]
46603 4 7.31063 30080 88982 67982
46612 4 6.90661 112515 -4416.54 16622.8
46601 4 32466.9 -16442.9 -521.354 -20.6703
46614 4 7.51803 -260333 68022 56395.8
46623 4 8.62902 -462294 -33507.6 131629
46625 4 6.81659 -305040 -321933 -89033.7
46618 4 6.47143 -90337 183523 -66951.5
46629 4 7.85058 -196684 23981.5 -210568
46621 4 6.8826 49061.9 172705 56621.3
46602 4 6.01874 20385.3 -219707 32714
46599 4 8.9067 39593.5 -95342.4 -94897.3
46627 4 6.8603 -3195.25 4593.34 121505
46624 4 6.92831 -179579 -325860 -986474
46630 4 7.51096 -114425 -190634 -23213.7
46628 4 6.74022 140183 -15663.4 88806.4
46604 4 5.28776 137633 58608.5 2216.91
46600 4 8.42635 5676 3202.72 144603
46626 4 7.99365 -83389.4 -87606.7 -73313.5
46620 4 7.88453 -159091 94600.7 113745
ITEM: TIMESTEP
140000
ITEM: NUMBER OF ATOMS
19
ITEM: BOX BOUNDS pp pp ff
0.0000000000000000e+00 7.5204971283511398e+01
0.0000000000000000e+00 7.6781222183235400e+01
0.0000000000000000e+00 1.2000000000000000e+02
ITEM: ATOMS id type c_voronoi[1] c_stress[1] c_stress[2] c_stress[3]
46603 4 6.19148 -150149 70040.9 54776.6
46612 4 6.85135 -1514.4 -472281 -107771
46614 4 6.99038 44359.2 76385.8 -110114
46623 4 8.35171 -271395 -44348.8 105295
46625 4 8.67762 -223892 23528.4 45564.2
46629 4 4.8121 -71956.8 118667 -20217.7
46621 4 7.04705 112201 -46138.7 43072.7
46599 4 8.05422 -83628.9 -88942.9 -32589.4
46627 4 319.28 -287315 -164221 -63802
46618 4 7.18114 50439.4 -139574 -474143
46624 4 6.54145 -213739 -242462 -251107
46602 4 7.23915 -141317 -12584.5 -83981.7
46630 4 7.75193 97306.4 -92331.9 -88448.9
46628 4 6.20263 -93198.6 39242 47842.8
46604 4 6.48069 118616 -313332 -103110
46601 4 33094 -16442.9 -521.354 -20.6703
46600 4 8.2279 34479.5 40053.9 -111969
46626 4 6.07431 -116383 76545.4 93171
46620 4 8.28427 27154.8 33128.8 -110424
ITEM: TIMESTEP
150000
ITEM: NUMBER OF ATOMS
20
ITEM: BOX BOUNDS pp pp ff
0.0000000000000000e+00 7.5204971283511398e+01
0.0000000000000000e+00 7.6781222183235400e+01
0.0000000000000000e+00 1.2000000000000000e+02
ITEM: ATOMS id type c_voronoi[1] c_stress[1] c_stress[2] c_stress[3]
46603 4 7.38762 36012 87619.6 133356
46612 4 9.04316 -98323.6 -56973.8 11498.1
46614 4 7.4064 -40394.8 -170722 32876.7
46623 4 8.25728 -103110 12464.7 97143.1
46629 4 7.71885 46389.5 75786.9 148940
46621 4 6.51785 23294.2 88762.1 66573
46599 4 7.82543 2253.45 -38276.3 52339.3
46625 4 6.60976 -278872 -169496 -430067
46618 4 7.38086 -11578.9 -136555 -254852
46624 4 7.02802 -33733.4 124306 -171754
46602 4 6.67994 57133.6 27665.2 98539.2
46631 4 7.23381 -357327 47120.5 -193859
46627 4 25964.4 -55489.9 -35944.3 -52367.2
46601 4 34729.9 -16442.9 -521.354 -20.6703
46630 4 6.47827 96748.5 -101264 93675.5
46628 4 8.53481 -28321.9 -27143.6 38890
46604 4 5.23391 236774 -84284.6 5942.29
46626 4 6.60234 16822 70260.6 19366.9
46600 4 6.97655 111075 -174607 -84524.8
46620 4 8.17462 56048.4 -23979.7 38571.8
ITEM: TIMESTEP
160000
ITEM: NUMBER OF ATOMS
20
ITEM: BOX BOUNDS pp pp ff
0.0000000000000000e+00 7.5204971283511398e+01
0.0000000000000000e+00 7.6781222183235400e+01
0.0000000000000000e+00 1.2000000000000000e+02
ITEM: ATOMS id type c_voronoi[1] c_stress[1] c_stress[2] c_stress[3]
46612 4 7.73519 -6801.12 81184 46429.7
46603 4 6.97876 -114378 -309974 -430056
46614 4 7.78149 93175.7 68529.5 -157693
46623 4 8.79976 1149.35 34803.4 46319.5
46629 4 7.39296 126624 103588 -107080
46621 4 8.20185 -26503.9 -768.17 57505.6
46599 4 7.81361 13913.8 -202385 139789
46625 4 7.00128 -23945.9 135756 -390327
46601 4 34591.2 -16442.9 -521.354 -20.6703
46624 4 6.78388 -3128.87 -179571 -58622.9
46602 4 6.58161 42606.7 12304 97926.5
46631 4 4.10883 -393775 -110849 29847.8
46626 4 7.62211 136103 -1511.49 44520.3
46630 4 7.37885 12189.1 46858.7 82108.1
46628 4 3496.63 806.839 175.604 1911.28
46604 4 5.34788 79643.4 -106962 -113619
46618 4 6.82852 -380944 49241 -549288
46600 4 7.0456 30593.5 30378.1 -125272
46620 4 7.86615 30057.8 -83216.4 -169864
46627 4 73749.1 -55489.9 -35944.3 -52367.2
ITEM: TIMESTEP
170000
ITEM: NUMBER OF ATOMS
20
ITEM: BOX BOUNDS pp pp ff
0.0000000000000000e+00 7.5204971283511398e+01
0.0000000000000000e+00 7.6781222183235400e+01
0.0000000000000000e+00 1.2000000000000000e+02
ITEM: ATOMS id type c_voronoi[1] c_stress[1] c_stress[2] c_stress[3]
46612 4 6.87637 -391727 -96669.1 -2.49891e+06
46603 4 7.18526 -325771 -187259 -196631
46614 4 7.39782 70746 -96245.3 30329.7
46623 4 8.92971 15864.2 -316120 30815.4
46601 4 36265.4 -16442.9 -521.354 -20.6703
46618 4 8.86519 -8131.57 -497529 -201670
46629 4 6.73409 -453.154 171324 93210.1
46621 4 8.91537 -30631.5 20783.6 -81350.1
46599 4 8.61502 33369 -4898.84 39613.2
46624 4 5.23519 -256369 -247767 -15607.1
46625 4 7.81922 -75283.9 -1.13013e+06 168147
46602 4 6.79784 -93142.7 68856.2 -96.6042
46631 4 8.64029 56551.6 -14069.1 -36795.7
46626 4 7.47703 98385.2 19082.4 156280
46632 4 6.39399 4514.29 93350.2 9875.01
46630 4 33414 -10405.1 -13137.1 -205559
46628 4 505.042 55642.9 -317420 -118453
46604 4 8.38633 -132229 -190056 39115.5
46600 4 6.98731 -44589.2 144133 -17081.6
46620 4 7.62229 38100.4 -141165 4625.39
ITEM: TIMESTEP
180000
ITEM: NUMBER OF ATOMS
20
ITEM: BOX BOUNDS pp pp ff
0.0000000000000000e+00 7.5204971283511398e+01
0.0000000000000000e+00 7.6781222183235400e+01
0.0000000000000000e+00 1.2000000000000000e+02
ITEM: ATOMS id type c_voronoi[1] c_stress[1] c_stress[2] c_stress[3]
46612 4 8.30409 26108.7 18845.3 -85148.3
46603 4 9.12087 15949 39252.1 54197.1
46614 4 8.68378 -94572.5 103574 32935
46623 4 8.37222 16806.9 -24660.1 146343
46629 4 8.24038 20761.9 63618.4 41247.9
46621 4 8.377 32812.7 29462.7 49404.7
46599 4 8.07159 -185534 -16603.5 -167015
46624 4 6.79469 -104604 -659695 -127676
46625 4 8.50361 -84806.9 -969546 -175875
46602 4 8.09021 -232208 -86311.7 -41597.2
46631 4 6.84484 69728.9 181925 45004.4
46618 4 9.39347 -224056 -71894.4 56632.8
46626 4 7.10093 117775 12343.9 127238
46632 4 6.64081 -191572 140049 32465
46628 4 8.10301 -586756 -1.38123e+06 -351406
46604 4 9.01476 -239124 -195742 24866
46633 4 8.59542 51113.7 -74351.3 164648
46601 4 36903.1 -16442.9 -521.354 -20.6703
46600 4 6.61959 -15312.6 185935 26490.7
46620 4 8.19215 -111663 36402.5 95793.7
ITEM: TIMESTEP
190000
ITEM: NUMBER OF ATOMS
20
ITEM: BOX BOUNDS pp pp ff
0.0000000000000000e+00 7.5204971283511398e+01
0.0000000000000000e+00 7.6781222183235400e+01
0.0000000000000000e+00 1.2000000000000000e+02
ITEM: ATOMS id type c_voronoi[1] c_stress[1] c_stress[2] c_stress[3]
46612 4 7.95605 -105319 -216027 86318
46603 4 8.99103 41164.5 -57269.7 35160.9
46614 4 8.27671 8259.37 7741.05 105716
46623 4 8.6784 -191311 -45517.4 56467.9
46629 4 6.60649 64988.2 -193220 58913
46621 4 8.12735 -18941 95198.7 -77605.3
46599 4 8.68357 -95361.3 -7188.87 155417
46624 4 4.86045 -284057 -220126 -309826
46625 4 5.05884 174834 -1.09583e+06 -220184
46602 4 5.82417 -100858 -36998.9 -48663.5
46631 4 7.11403 109891 136688 33913.1
46618 4 6.6907 -14555.7 -11341.1 -135538
46632 4 6.72564 -474072 -599093 -108323
46601 4 36771.2 -16442.9 -521.354 -20.6703
46633 4 7.72377 -171610 1322.94 -64762.3
46628 4 8.10519 -133097 -47713 3071.18
46604 4 8.22569 -434675 -294060 31384.6
46626 4 8.30276 52554.5 74573.2 7476.36
46600 4 6.86224 91055 -98705.6 -52187.6
46620 4 8.43854 -3490.95 -70506.8 175096
ITEM: TIMESTEP
200000
ITEM: NUMBER OF ATOMS
20
ITEM: BOX BOUNDS pp pp ff
0.0000000000000000e+00 7.5204971283511398e+01
0.0000000000000000e+00 7.6781222183235400e+01
0.0000000000000000e+00 1.2000000000000000e+02
ITEM: ATOMS id type c_voronoi[1] c_stress[1] c_stress[2] c_stress[3]
46603 4 8.14484 -293616 -3264.2 5275.54
46612 4 8.03686 -199180 -245914 -279568
46614 4 8.30425 -230406 -35391.5 137802
46623 4 8.72395 -104987 18444.7 130058
46629 4 6.93773 -146809 -128442 -62871.2
46621 4 8.92529 -11240.2 -41974.7 -188497
46599 4 7.48021 -441688 65524.5 75717.6
46625 4 7.22625 -59478.2 -82316.4 -1.70262e+06
46618 4 6.92692 18754.8 -298336 977.432
46624 4 4.27018 84954.7 -35010.8 -28168
46601 4 38049.8 -16442.9 -521.354 -20.6703
46602 4 7.09201 13141.1 15706.5 88734.9
46631 4 5.97727 155700 -21870 -330783
46633 4 4.22678 -30162 -81288.2 80303.4
46628 4 6.6453 -12657.1 56800.6 -2747.3
46604 4 7.42845 -50289.1 -10445.4 -127167
46626 4 6.65687 5940.63 58826.3 28741.6
46632 4 30105.2 -132192 -11043.7 -92432.9
46600 4 7.17631 110513 156436 9888.58
46620 4 7.77213 -118183 -196402 -56914.8
ITEM: TIMESTEP
210000
ITEM: NUMBER OF ATOMS
20
ITEM: BOX BOUNDS pp pp ff
0.0000000000000000e+00 7.5204971283511398e+01
0.0000000000000000e+00 7.6781222183235400e+01
0.0000000000000000e+00 1.2000000000000000e+02
ITEM: ATOMS id type c_voronoi[1] c_stress[1] c_stress[2] c_stress[3]
46603 4 8.21912 -257813 38883.7 34004.1
46612 4 7.77277 -48096.7 20467.8 -186964
46614 4 8.59613 13249.3 40339.6 132484
46623 4 8.07046 -254686 -90945.6 -69744
46629 4 5.40942 -177080 -273129 94556.3
46601 4 20156 -16442.9 -521.354 -20.6703
46632 4 20082 -132192 -11043.7 -92432.9
46621 4 8.63849 -2168.4 -178663 -83680.7
46599 4 8.54995 40719.3 37924 104595
46625 4 6.35565 -572202 -1.89601e+06 -51463
46624 4 4.62008 -453412 -494834 -540265
46602 4 7.81904 -49824.9 24143 146709
46631 4 7.03596 -23444.6 45336.5 -13250.9
46618 4 7.8275 27703.4 -253936 42001.2
46633 4 7.27468 -148156 969.394 -167660
46628 4 6.8902 30603.1 129945 21919.5
46604 4 8.00813 -75320.8 -882.25 7695.19
46626 4 6.73289 -15662.9 27542.7 105531
46600 4 7.23575 -667347 81579.4 -199190
46620 4 8.25438 -213989 -45304.6 948.209
ITEM: TIMESTEP
220000
ITEM: NUMBER OF ATOMS
20
ITEM: BOX BOUNDS pp pp ff
0.0000000000000000e+00 7.5204971283511398e+01
0.0000000000000000e+00 7.6781222183235400e+01
0.0000000000000000e+00 1.2000000000000000e+02
ITEM: ATOMS id type c_voronoi[1] c_stress[1] c_stress[2] c_stress[3]
46603 4 6.88786 -15394 186770 -349456
46612 4 6.56648 -148970 -603610 -391497
46614 4 7.09156 94739.7 -27334 27870.2
46623 4 8.53259 66099.9 -54545.8 -77679.8
46629 4 5.33022 -108503 -353843 56287.7
46621 4 8.07045 -42983.7 43880.4 -147145
46599 4 8.04304 -245896 985.323 96960.4
46625 4 7.17844 50027.8 -1.12012e+06 -402441
46624 4 4.7178 -388391 -141846 -10686.2
46634 4 7.39883 -2151.93 100392 47108.9
46602 4 7.33526 -506923 -489283 -795337
46631 4 7.94607 88472.5 -31379 -89405.8
46628 4 7.70447 23216.1 135422 49287.6
46618 4 7.5718 -234491 -44744.1 -152782
46604 4 7.79645 75604.7 8714.17 91604.1
46633 4 7.91864 -45848.9 19245 63833.3
46626 4 6.96127 6.01463 85608.9 63699.5
46600 4 7.8924 -46989 -181099 -325819
46601 4 37670.4 -16442.9 -521.354 -20.6703
46620 4 6.71955 -177921 -52885.3 -179830
ITEM: TIMESTEP
230000
ITEM: NUMBER OF ATOMS
21
ITEM: BOX BOUNDS pp pp ff
0.0000000000000000e+00 7.5204971283511398e+01
0.0000000000000000e+00 7.6781222183235400e+01
0.0000000000000000e+00 1.2000000000000000e+02
ITEM: ATOMS id type c_voronoi[1] c_stress[1] c_stress[2] c_stress[3]
46612 4 7.50845 1530.03 -255821 29767.4
46603 4 7.48914 46710.7 111311 -22940.6
46614 4 8.59244 2137.26 -83835.2 -186633
46623 4 8.7024 8423.06 45637.8 97099.4
46635 4 6.77075 -168739 178680 -59150.5
46629 4 6.0012 -32646.3 -144828 -233590
46621 4 7.06652 35063 24664.7 160671
46599 4 7.52548 -27542.4 15047 104460
46618 4 6.8072 -588165 -237564 -440310
46624 4 5.32939 40537.1 38027.6 -294961
46634 4 6.41681 -235694 -52577.9 -189381
46631 4 6.33339 -159991 73268.7 -186273
46602 4 6.66865 166405 -37031.1 28872.9
46628 4 6.51236 -436767 -249920 -240014
46625 4 8.08954 -230273 -220582 -673724
46601 4 38230.2 -16442.9 -521.354 -20.6703
46633 4 6.69937 103508 181953 -3870.94
46604 4 6.71075 40598 13432.2 59249
46626 4 4.53569 -314775 -161485 -188221
46600 4 7.63093 -126286 -37716.2 -103461
46620 4 6.89251 -81178.5 -143360 -54209.4
ITEM: TIMESTEP
240000
ITEM: NUMBER OF ATOMS
21
ITEM: BOX BOUNDS pp pp ff
0.0000000000000000e+00 7.5204971283511398e+01
0.0000000000000000e+00 7.6781222183235400e+01
0.0000000000000000e+00 1.2000000000000000e+02
ITEM: ATOMS id type c_voronoi[1] c_stress[1] c_stress[2] c_stress[3]
46612 4 8.64491 -72979.6 -458121 -639455
46603 4 5.44222 -53065.4 -1.09385e+06 -306015
46614 4 7.00871 -188170 39899.3 13068.8
46623 4 8.1713 65184.8 44474 107926
46635 4 7.3996 -11548.4 -33801.3 -292328
46629 4 7.8156 51176.3 32285.8 -6011.93
46625 4 7.36545 -189575 -462300 -641615
46621 4 6.5837 77797 -15632.8 107833
46634 4 8.56753 -16927.6 66199.1 -336917
46599 4 8.35245 9938.68 36833.1 75367
46624 4 7.85456 35826.8 72743.8 -194799
46618 4 6.99232 49938.3 -272970 -533566
46601 4 37119.1 -16442.9 -521.354 -20.6703
46602 4 7.80961 -268928 -281043 57299.2
46631 4 7.50914 150065 49473.5 36909.6
46628 4 7.7037 -181905 -168704 -135252
46626 4 7.25302 -142403 -43853.1 -186362
46604 4 7.10209 -124440 -42719.8 -2760.47
46633 4 7.80911 68200.2 52635.1 144967
46600 4 9.26329 -85241.8 -94029.8 -19021.1
46620 4 7.66755 72455.1 -12294.9 116270
ITEM: TIMESTEP
250000
ITEM: NUMBER OF ATOMS
22
ITEM: BOX BOUNDS pp pp ff
0.0000000000000000e+00 7.5204971283511398e+01
0.0000000000000000e+00 7.6781222183235400e+01
0.0000000000000000e+00 1.2000000000000000e+02
ITEM: ATOMS id type c_voronoi[1] c_stress[1] c_stress[2] c_stress[3]
46636 4 7.21166 10466.3 -86075.6 -17898.4
46612 4 9.32677 -48731.9 -153592 -128541
46603 4 6.9215 -93652.5 -264348 -52602.4
46614 4 7.93793 -433937 -85127.3 -317678
46623 4 8.76033 -47350.2 27040.3 11901
46635 4 7.24128 58786.6 -396853 11206.9
46629 4 4.62809 -137259 -69472.7 -39045
46621 4 6.52015 82737.3 39844.6 3551.01
46625 4 8.91633 -113478 -827175 -98709.5
46618 4 8.35545 -384051 -42737.9 -139357
46601 4 73749.1 -16442.9 -521.354 -20.6703
46634 4 9.6862 25669.7 -285652 42979.2
46599 4 7.92695 -35237.9 -187027 30664.6
46624 4 6.81954 -50219.8 -63191.5 -610035
46602 4 7.90478 -80539.2 -64173.2 -265962
46631 4 8.02713 75012 11196.5 71429.6
46628 4 8.878 -58124.5 1276.82 -3944.1
46604 4 8.01944 -112185 -85937.8 -390895
46633 4 7.75361 -22671.8 44975 -103115
46600 4 8.70861 107047 -206056 -48244.3
46626 4 6.45306 -591580 89351.2 -164578
46620 4 6.51295 2340.86 41595.9 10270.8
ITEM: TIMESTEP
260000
ITEM: NUMBER OF ATOMS
23
ITEM: BOX BOUNDS pp pp ff
0.0000000000000000e+00 7.5204971283511398e+01
0.0000000000000000e+00 7.6781222183235400e+01
0.0000000000000000e+00 1.2000000000000000e+02
ITEM: ATOMS id type c_voronoi[1] c_stress[1] c_stress[2] c_stress[3]
46612 4 8.04581 -106706 17266.5 15883.5
46603 4 6.90391 -220554 -245656 -537918
46614 4 6.89706 141213 -231746 -77110.4
46623 4 9.07915 1290.97 1750.04 54931.3
46635 4 7.07783 19581.7 93374.8 32575.2
46618 4 8.51246 -86514.8 -106939 99381.5
46629 4 7.93596 -19689 55543.2 65149.2
46621 4 7.52663 -16452.6 -52041.6 12813.3
46637 4 5.78397 -158253 -57959.1 -517421
46602 4 7.49907 -96063.6 -47531.3 -77570.9
46634 4 5.52663 130786 -643305 41521.9
46599 4 5.19807 -95482.4 -82110.1 -19767.2
46636 4 7.96084 -188583 55108.2 -35640.6
46624 4 7.66191 10670.9 52562.5 -6877.21
46631 4 6.25571 141996 12064.4 16672.8
46625 4 5.03053 93803.8 48387.3 -7585.96
46628 4 54937.5 -14840.2 -14929 -113045
46604 4 8.48869 66147.7 17377.3 81076.9
46626 4 6.45334 34900.4 -5504.75 12308.2
46633 4 8.08118 -5553.58 90735.4 165295
46600 4 6.1045 -216661 -33165.2 -43375.7
46620 4 6.99136 20390 25786.5 99173.8
46601 4 51267.2 -16442.9 -521.354 -20.6703
ITEM: TIMESTEP
270000
ITEM: NUMBER OF ATOMS
22
ITEM: BOX BOUNDS pp pp ff
0.0000000000000000e+00 7.5204971283511398e+01
0.0000000000000000e+00 7.6781222183235400e+01
0.0000000000000000e+00 1.2000000000000000e+02
ITEM: ATOMS id type c_voronoi[1] c_stress[1] c_stress[2] c_stress[3]
46612 4 8.19752 15760.7 -61854.3 103584
46603 4 7.45342 -221019 -145909 -481714
46614 4 6.46753 6652.25 -153161 90369.9
46623 4 8.54608 56400.2 -118119 82408.6
46635 4 7.4431 109324 65523.5 107328
46618 4 8.99827 38528.8 -12252.7 2844.42
46629 4 4.67728 90825.7 27819.2 -22792.3
46621 4 6.56519 -415303 -4820.21 64160.7
46637 4 7.85756 -125530 -99443 -43090.6
46602 4 7.37691 57749.7 110026 -90679.9
46634 4 5.41747 87820 -127053 -25563.3
46599 4 4.36813 -678953 -342474 -93500.8
46636 4 7.51299 -354224 -193961 -38615
46624 4 6.53501 -154746 116351 -34705.7
46631 4 7.30323 21012.1 79971.7 76305.5
46625 4 7.80331 -127386 85404 -140301
46601 4 73749.1 -16442.9 -521.354 -20.6703
46604 4 7.0474 10121.9 -60938.5 -32415.3
46626 4 7.7027 34526.3 63162.8 65045.3
46600 4 8.28909 8489.53 -139714 -118418
46633 4 6.43996 -33338.6 194147 652.863
46620 4 6.69749 33973.2 53482.8 57066.2
ITEM: TIMESTEP
280000
ITEM: NUMBER OF ATOMS
22
ITEM: BOX BOUNDS pp pp ff
0.0000000000000000e+00 7.5204971283511398e+01
0.0000000000000000e+00 7.6781222183235400e+01
0.0000000000000000e+00 1.2000000000000000e+02
ITEM: ATOMS id type c_voronoi[1] c_stress[1] c_stress[2] c_stress[3]
46603 4 6.95205 52123.2 -304650 -48985.9
46612 4 7.52862 18039.6 -45616 -159.562
46614 4 6.56159 -136624 82325.4 78827.2
46623 4 7.47996 -38423.9 45562 101627
46635 4 8.35793 30398.6 -32264.2 34431.1
46618 4 8.60566 -23212.3 -124485 -44764.2
46629 4 6.6064 -709686 -304737 74608.4
46621 4 6.79879 49769.4 -23234.7 24488.3
46637 4 7.0406 19267.8 -61147.5 10346.1
46634 4 6.21233 146286 -6949.64 -163245
46602 4 6.48225 -186716 96574.7 7671.21
46599 4 5.54681 168172 15710.1 41016.4
46636 4 6.24088 71083.6 -84684.3 56332.6
46624 4 4.8259 -140234 -214901 -30297.3
46631 4 6.52302 -33849.5 13038.3 -261015
46601 4 73749.1 -16442.9 -521.354 -20.6703
46625 4 6.74419 -89058 -681964 -108349
46604 4 8.00628 -304.384 -133724 -128409
46626 4 8.18627 -4843.86 1755.02 191236